ITEM: TIMESTEP
0
ITEM: NUMBER OF ATOMS
192
ITEM: BOX BOUNDS xy xz yz pp pp pp
0.0000000000000000e+00 1.2444699999999999e+01 0.0000000000000000e+00
0.0000000000000000e+00 1.2444699999999999e+01 0.0000000000000000e+00
0.0000000000000000e+00 1.2444699999999999e+01 0.0000000000000000e+00
ITEM: ATOMS id type x y z
2 1 5.36 6 1.81
12 1 3.64 3.19 1.08
17 1 0.97 4.12 0.84
66 2 5.51 5.51 2.6
76 2 3.84 4.17 1.06
120 2 4.74 2.41 2.42
140 2 2.67 3.09 1.05
145 2 1.51 4.9 0.53
184 2 6.02 1.57 2.67
4 1 3.38 4.28 4.84
18 1 1.24 5.99 4.76
51 1 5.94 0.84 5.91
56 1 5.36 2.06 3.14
62 1 1.41 2.32 4.17
68 2 4.28 4.19 4.46
82 2 0.43 5.51 4.88
126 2 1.76 1.44 4.07
132 2 2.96 3.44 4.61
146 2 1.94 5.36 4.61
153 2 6.17 3.63 3.9
167 2 1.25 2.26 6.18
179 2 5.45 1.07 5.12
190 2 0.92 2.56 3.28
22 1 3.23 3.34 8.26
23 1 5.02 6.21 7.29
37 1 6.11 3.07 7.96
39 1 1.31 2.02 7.09
74 2 0.27 1.04 8.27
86 2 4.23 3.22 8.21
87 2 5.27 5.9 8.19
101 2 5.85 2.21 7.53
103 2 2.17 2.43 7.46
115 2 5.48 0.06 6.32
150 2 3.12 4.28 8.41
151 2 5.12 5.54 6.6
162 2 2.02 6.1 8.92
28 1 5.87 5.84 9.79
32 1 5.29 1.92 11.56
34 1 2.04 5.49 9.71
81 2 0.68 3.76 12.44
92 2 5.62 4.99 10.13
96 2 4.64 2.37 12.16
98 2 1.1 5.3 9.72
123 2 2.15 5.99 11.18
160 2 4.84 1.08 11.38
8 1 5.32 11.19 1.83
14 1 3.88 8.05 2.51
42 1 1.31 8.49 0.81
52 1 1.88 11.66 0.64
72 2 5.74 10.31 1.64
78 2 3 8.17 2.14
106 2 0.64 8.13 1.45
116 2 0.99 11.99 0.41
136 2 4.93 11.46 0.96
142 2 4.27 7.23 2.16
163 2 6.05 8.48 0.61
170 2 1.39 9.44 0.85
180 2 1.92 11.57 1.62
24 1 3.94 10.55 3.95
33 1 1.53 12.16 3.45
67 2 0.24 6.8 3.29
88 2 4.44 10.9 3.14
97 2 0.74 11.69 3.86
117 2 4.54 10.95 5.79
152 2 3.97 9.58 3.89
155 2 5.96 8.02 4.26
157 2 1.83 6.59 6.16
161 2 2.38 11.71 3.7
29 1 2.18 6.91 6.99
47 1 2.01 11.54 6.89
49 1 5.82 9.18 7.71
53 1 4.66 11.28 6.73
64 1 0.75 9.22 7.39
93 2 3.09 6.66 6.98
111 2 1.76 12.44 6.8
113 2 5.59 8.29 7.44
124 2 0.49 9.06 9.13
128 2 1.44 8.49 7.32
175 2 2.97 11.66 6.88
181 2 5.05 10.55 7.26
192 2 1.11 10.09 7.21
5 1 4.54 11.73 11.9
7 1 5.73 9.9 10.31
11 1 5.01 7.72 11.74
55 1 2.01 11.07 10.33
59 1 2.37 6.23 12.1
60 1 0.3 8.77 10.05
69 2 3.63 11.56 11.76
71 2 5.37 9.14 10.85
75 2 5.46 7.08 11.15
119 2 2.52 10.55 9.76
133 2 5.04 11.17 11.3
135 2 5.94 9.68 9.37
139 2 4.17 7.28 11.8
183 2 1.73 11.85 9.82
187 2 1.86 7.03 12.37
188 2 1.08 9.16 10.59
1 1 11.83 2.56 2.18
6 1 7.34 0.18 2.18
21 1 8.06 4.72 1.3
44 1 11.7 0.33 0.6
45 1 7.63 2.04 0.28
65 2 11.09 2.87 2.74
85 2 7.92 3.83 0.8
129 2 12.25 3.32 1.68
130 2 6.27 6.22 1.56
149 2 8.58 4.29 2.01
172 2 11.38 0.95 1.34
173 2 7.43 1.82 1.24
182 2 9.73 5.52 1.11
16 1 11 5.31 5.17
25 1 6.25 4.56 4.21
40 1 9.48 2.11 5.92
63 1 9.69 3.69 3.56
80 2 11.18 4.84 6.05
89 2 6.93 4.56 4.89
95 2 8.4 3.45 6.18
127 2 10.05 4.44 4.1
144 2 10.68 6.2 5.44
191 2 9.34 3.01 4.17
10 1 12.06 0.64 8.92
31 1 8.03 4.28 6.57
43 1 11.25 3.48 7.51
58 1 10.51 5.81 8.66
104 2 10.1 2.53 6.55
107 2 11.12 4.2 8.14
159 2 8.74 4.67 7.12
165 2 6.81 3.46 7.31
166 2 7.52 1.99 9.1
168 2 9.31 1.19 6.35
171 2 12.13 3.22 7.5
20 1 8.39 5.72 10.39
26 1 12.18 2.35 11.11
36 1 11.75 6.18 11.01
38 1 8.22 1.38 9.43
41 1 9.33 3.34 10.97
84 2 9.08 5.89 9.68
90 2 11.88 1.61 11.75
100 2 11.36 6.2 11.9
102 2 8.81 2.01 9.89
105 2 9.07 4.29 10.91
109 2 6.83 1.84 12.19
122 2 10.89 6.06 9.58
138 2 12.07 1.36 9.54
154 2 11.4 2.92 10.99
156 2 6.81 5.9 9.83
169 2 8.84 2.9 11.69
3 1 12.17 7.34 2.71
9 1 9.39 11.14 1.1
35 1 6.66 9.05 1.21
54 1 10.32 6.26 0.89
70 2 6.53 12.07 1.99
73 2 8.71 11.07 0.41
91 2 6.79 8.54 3.09
99 2 7.54 9.11 0.83
108 2 11.03 12.03 0.58
118 2 10.94 6.29 1.65
134 2 7.6 12.39 3.03
137 2 8.92 11.68 1.69
147 2 10.02 9.64 2.47
185 2 9.34 7.2 0.21
13 1 11.88 10.9 4.7
19 1 10.1 9.09 3.32
27 1 6.76 8.57 4.07
48 1 8.02 11.27 4.66
77 2 11.55 10.19 4.15
83 2 9.51 9.48 3.94
112 2 7.37 11.88 5.08
131 2 11.5 7.85 3.14
141 2 11.89 10.59 5.56
176 2 7.5 10.43 4.47
30 1 10.89 7.69 6.78
46 1 8.86 9.52 7.4
61 1 9.47 12.13 7.57
94 2 11.73 8.22 6.86
110 2 9.13 10.45 7.25
125 2 8.69 12.34 8.15
158 2 10.19 8.36 6.88
174 2 9.15 9.43 8.28
177 2 6.69 9.4 7.47
186 2 10.71 6.56 7.97
189 2 10.19 12.39 8.15
15 1 9.82 9.16 10.18
50 1 8.11 11.19 11.22
57 1 8.56 7.59 12.17
79 2 9.53 10.04 10.56
114 2 8.14 12.12 10.86
121 2 8.84 8.27 11.56
143 2 10.8 9.22 10.18
148 2 8.41 6.43 11.04
164 2 12.12 7.05 10.81
178 2 7.29 10.77 10.93
ITEM: TIMESTEP
100
ITEM: NUMBER OF ATOMS
192
ITEM: BOX BOUNDS xy xz yz pp pp pp
0.0000000000000000e+00 1.2444699999999999e+01 0.0000000000000000e+00
0.0000000000000000e+00 1.2444699999999999e+01 0.0000000000000000e+00
0.0000000000000000e+00 1.2444699999999999e+01 0.0000000000000000e+00
ITEM: ATOMS id type x y z
2 1 5.44746 5.95284 1.81595
12 1 3.55321 3.25462 1.31737
17 1 0.788494 3.95152 0.528673
66 2 6.07414 5.66724 2.44934
76 2 3.74053 4.24794 1.42914
120 2 4.67549 2.65471 2.54963
140 2 2.59352 3.2791 1.2008
145 2 1.04741 4.8481 0.14657
184 2 5.89024 1.5543 2.78872
130 2 5.94834 6.02238 0.975719
129 2 0.0772259 2.83008 1.9592
4 1 3.08085 4.37475 4.76913
18 1 1.16576 6.11954 4.64707
51 1 5.84237 1.2725 5.57277
190 2 0.692506 2.28341 4.22784
62 1 1.70089 2.08129 4.43934
68 2 4.02875 4.59577 4.59417
82 2 0.29851 5.6526 4.76725
126 2 1.6991 1.15293 4.0739
132 2 2.91896 3.52889 4.26873
146 2 1.87054 5.39348 4.58531
153 2 5.96067 3.91129 3.8594
167 2 1.68824 1.94029 6.03976
179 2 5.44031 1.62298 4.76324
25 1 6.10173 4.71408 4.39284
115 2 5.31943 0.544791 5.81416
56 1 5.38992 2.28381 3.13861
22 1 3.21373 3.45658 8.56469
151 2 5.57103 5.71354 6.41835
37 1 5.94893 2.96722 8.0397
39 1 1.43607 1.99921 7.01784
150 2 2.81477 4.18684 9.0758
86 2 4.15789 3.69738 8.42366
87 2 5.22689 5.9814 7.97968
101 2 5.88805 2.59922 7.14022
103 2 2.23277 2.43914 7.42264
111 2 1.76129 0.0838838 7.0975
74 2 0.059986 0.620952 8.24063
162 2 1.90186 6.17844 8.55108
28 1 5.65678 5.79373 9.9964
32 1 5.30212 2.06857 11.849
34 1 1.92106 5.82831 9.4526
81 2 0.504584 3.44146 12.2035
92 2 5.27546 4.91644 10.0103
96 2 4.61048 2.4949 12.4082
98 2 1.0509 5.86502 9.84287
160 2 5.05453 1.11462 11.6206
8 1 5.38249 11.2098 1.71508
14 1 3.46891 8.02178 2.83633
42 1 1.5147 8.63399 0.775813
52 1 1.88676 11.2735 1.01576
72 2 5.94467 10.4618 1.57189
78 2 2.9797 8.02101 1.98804
106 2 0.877753 8.29394 1.4387
116 2 1.19004 11.6731 0.486237
136 2 5.01906 11.4777 0.834887
142 2 4.22977 7.39018 2.61296
163 2 6.0889 8.66083 0.611719
170 2 1.64535 9.56531 0.96965
180 2 1.72606 11.4913 1.96442
187 2 2.02293 7.19989 0.165696
24 1 3.85675 10.6355 3.96822
33 1 1.78278 12.0333 3.71253
67 2 0.331544 6.80159 3.26895
88 2 4.4358 11.0026 3.22076
97 2 1.02763 11.5417 4.02253
117 2 4.41713 10.8748 5.44037
152 2 3.81518 9.65329 3.78246
155 2 5.9793 8.18959 4.3173
161 2 2.615 11.6112 3.96042
29 1 2.43974 6.92932 7.08168
47 1 1.93777 11.6601 6.72212
49 1 5.94367 8.87096 7.61559
53 1 4.61309 11.0705 6.39821
64 1 0.710671 8.99658 7.17264
93 2 3.29811 6.52479 6.96256
192 2 1.09493 9.88329 7.03906
113 2 5.74094 7.96816 7.33523
124 2 0.595312 8.69673 9.32095
128 2 1.47934 8.29576 7.05277
175 2 2.98518 11.5769 6.71328
181 2 5.00943 10.2681 6.74587
157 2 1.93578 6.46369 6.34133
23 1 5.11547 6.3045 7.03333
5 1 4.56777 11.904 11.6113
7 1 5.74242 9.91933 10.3177
11 1 5.20632 7.67583 11.7558
55 1 2.00894 11.0296 10.3511
59 1 2.4653 6.33345 12.3184
60 1 0.297178 8.82153 10.1951
69 2 3.64526 12.0491 11.5219
71 2 5.48749 9.14737 10.8126
75 2 5.10821 6.98166 10.9899
119 2 2.34705 10.8543 9.5191
133 2 4.78553 11.1466 10.9432
135 2 5.56963 9.65119 9.39167
139 2 4.41083 7.47085 12.2497
183 2 1.26676 11.6704 10.2228
123 2 2.44 6.34153 11.3542
188 2 0.871984 9.65846 10.363
1 1 11.8396 2.25797 2.42118
6 1 7.54725 0.243338 2.62472
21 1 8.23513 4.52195 1.49112
44 1 11.8995 0.373768 0.432228
45 1 7.81725 2.01254 0.0322235
65 2 11.0437 2.77353 2.64187
85 2 8.10492 3.62139 1.03272
173 2 8.18622 1.07331 0.177409
182 2 10.1329 5.36634 1.22727
149 2 8.71725 4.05875 2.2022
172 2 12.0179 1.06018 1.08502
54 1 10.5025 6.20981 1.03391
16 1 11.1419 5.21118 5.19015
168 2 9.1143 1.24345 6.19795
40 1 9.38664 2.1962 5.92533
63 1 9.69555 3.53002 3.44843
80 2 11.1568 4.4441 5.89398
89 2 6.85431 4.51351 4.95855
191 2 9.36689 3.09226 4.24995
127 2 10.1708 4.35625 3.8255
144 2 10.8654 5.99872 5.73679
10 1 11.8326 0.377594 8.96019
31 1 7.92528 4.36592 6.65373
43 1 11.1499 3.46645 7.29609
58 1 10.5772 5.63023 8.5743
104 2 10.0929 2.3261 6.57374
107 2 11.0652 4.24429 7.93133
159 2 8.40486 5.17318 6.95461
165 2 6.52618 3.69996 8.06934
166 2 7.42046 1.61855 8.96985
125 2 9.19666 0.358804 8.29962
171 2 11.9601 3.04082 7.37448
95 2 8.50825 3.57441 6.50526
38 1 8.26936 1.26161 9.27855
20 1 8.34335 5.72753 10.2941
26 1 11.9681 2.35402 11.1639
169 2 8.77402 2.69745 11.5054
154 2 11.0698 2.62067 10.9869
41 1 9.40092 3.06537 10.7966
84 2 9.14631 5.78147 9.72043
90 2 11.9653 1.55559 11.6359
156 2 6.63445 5.59131 10.198
102 2 8.69343 1.9843 9.79339
105 2 9.08872 3.90694 10.524
109 2 6.77634 1.91416 12.3007
100 2 11.3655 6.14562 11.7655
138 2 12.0219 0.935924 9.70516
122 2 11.0452 6.03357 9.3772
3 1 12.2176 7.32822 2.64872
9 1 9.42775 10.8775 1.07222
35 1 6.86812 8.9957 1.18662
91 2 6.77461 8.71188 3.08649
70 2 6.68785 12.2143 2.29457
73 2 8.92171 10.6842 0.245345
185 2 9.23513 7.13468 0.166687
99 2 7.59842 8.58682 0.720464
147 2 9.83028 9.73749 2.43857
118 2 11.2775 6.45564 1.59959
108 2 11.0886 12.2831 0.606973
137 2 8.78245 11.4035 1.50204
13 1 11.94 10.7629 4.75112
19 1 10.2465 9.22958 3.19769
27 1 6.77571 8.67858 4.05967
48 1 7.65938 11.3213 4.79291
77 2 11.2459 10.3842 4.19701
83 2 9.65673 8.87728 3.85129
112 2 7.4304 11.8686 5.56219
176 2 7.19958 10.4271 4.88359
141 2 12.2684 10.0192 5.18534
134 2 7.68315 12.3201 3.55516
131 2 11.8268 8.02254 3.17571
30 1 10.6371 7.73982 6.84554
46 1 8.66357 9.56993 7.48662
61 1 9.39141 12.2985 7.44774
94 2 11.4677 8.31869 7.01788
110 2 8.78749 10.5763 7.301
189 2 10.3213 12.1164 7.5244
158 2 9.86724 8.29904 7.06131
174 2 8.99822 9.47944 8.36628
177 2 6.86057 9.00475 7.41769
186 2 10.719 6.33189 7.98776
15 1 9.82679 9.4459 10.2923
50 1 7.99027 11.4079 11.0805
57 1 8.70941 7.79722 12.097
79 2 9.43522 10.3737 10.4909
114 2 7.9603 12.202 10.4142
121 2 9.22295 8.48459 11.6007
143 2 10.8184 9.40089 10.2275
148 2 8.37323 6.49996 10.9789
164 2 12.1962 7.2064 11.074
178 2 7.1984 10.8305 10.8332
36 1 11.6859 6.42151 10.8952
ITEM: TIMESTEP
200
ITEM: NUMBER OF ATOMS
192
ITEM: BOX BOUNDS xy xz yz pp pp pp
0.0000000000000000e+00 1.2444699999999999e+01 0.0000000000000000e+00
0.0000000000000000e+00 1.2444699999999999e+01 0.0000000000000000e+00
0.0000000000000000e+00 1.2444699999999999e+01 0.0000000000000000e+00
ITEM: ATOMS id type x y z
2 1 5.38837 5.7905 1.94165
12 1 3.52715 3.55703 1.47462
17 1 0.853802 3.77498 0.297517
66 2 5.81328 5.55644 2.75711
76 2 3.91369 4.48258 1.50934
120 2 4.76526 2.42743 2.55091
140 2 2.64584 3.71367 1.16425
130 2 6.048 5.72392 1.25039
96 2 4.64638 2.81481 0.130064
145 2 0.802735 4.74372 0.114372
56 1 5.5835 2.571 3.08567
4 1 3.0099 4.50049 4.64013
115 2 5.58797 0.713871 5.63935
51 1 5.73317 1.62199 5.75575
190 2 1.2202 2.1094 3.59712
62 1 1.75475 2.0395 4.47119
68 2 3.90476 4.41956 4.28991
82 2 0.271396 5.81138 4.83635
126 2 1.92928 1.07134 4.25725
132 2 2.56345 3.57551 4.53849
146 2 1.78122 5.74375 4.34623
153 2 5.86455 3.91361 4.20783
151 2 5.20378 5.80049 6.21144
179 2 5.77458 1.92505 4.83894
25 1 5.91466 4.80848 4.55012
22 1 3.02729 3.42806 8.81411
167 2 1.49105 2.20067 6.4323
37 1 5.85565 2.76542 8.04354
39 1 1.29818 1.94155 7.37529
150 2 2.84017 4.39163 8.91587
86 2 3.97258 3.25512 8.61675
87 2 5.35878 5.72508 7.72386
101 2 5.62526 2.07724 7.41296
103 2 1.97358 2.45782 7.83822
165 2 6.20641 3.45892 7.56166
74 2 0.255412 0.298842 8.35594
28 1 5.46657 5.5088 9.85318
32 1 5.27808 2.26245 12.1322
34 1 1.7967 5.99815 9.37541
81 2 0.497244 3.30302 11.9432
92 2 5.16203 4.77477 10.3993
160 2 4.94105 1.35919 11.9789
98 2 0.853285 5.87491 9.6077
8 1 5.55804 11.2776 1.56228
14 1 3.29667 8.02068 3.07707
42 1 1.73877 8.51475 0.985261
52 1 1.78601 11.1447 1.36307
72 2 5.88736 10.3931 1.22285
78 2 2.59458 8.18874 2.40738
106 2 0.980309 8.20962 1.52552
116 2 1.19185 11.7628 0.934555
136 2 4.93987 11.6509 0.842595
142 2 3.77209 7.25477 2.65994
88 2 4.63642 10.7259 2.92214
170 2 1.71484 9.52692 1.10604
180 2 1.9582 11.4319 2.27848
187 2 2.22167 7.13542 0.312066
163 2 6.1444 8.21346 0.771628
24 1 4.03271 10.3508 3.56212
33 1 1.73475 11.8576 3.85236
67 2 0.336523 7.11597 3.3284
18 1 1.10324 6.338 4.65369
97 2 0.937988 11.2692 3.97806
117 2 4.54241 10.6536 5.25509
152 2 4.03974 9.38509 3.34153
53 1 4.70418 10.9134 6.17125
161 2 2.50289 11.3227 4.10049
157 2 2.17772 6.48752 6.08294
29 1 2.53732 7.01578 6.86514
47 1 1.85672 11.5389 7.02641
49 1 6.06296 8.9539 7.50777
162 2 1.94079 6.56107 8.6315
64 1 0.710829 9.00475 7.08893
93 2 3.4818 6.74497 6.84717
192 2 1.22437 9.78957 7.1392
113 2 5.74154 8.04448 7.24533
124 2 0.207777 9.34959 9.27032
128 2 1.35494 8.37288 6.93527
175 2 2.76987 11.1247 6.89101
181 2 5.26256 10.2044 6.56674
23 1 5.24296 6.40321 6.97683
135 2 5.69771 9.53103 9.30964
111 2 1.88481 12.4113 6.67989
5 1 4.21938 12.0545 11.4453
7 1 5.87521 9.87587 10.1889
11 1 5.13395 7.54027 11.9843
55 1 1.88904 11.2587 10.1848
183 2 0.93666 11.4901 10.1515
60 1 0.00190487 8.95285 10.0715
69 2 3.36941 11.6886 11.2649
71 2 5.38618 9.32752 10.7786
75 2 5.41603 7.01 11.2486
119 2 2.18521 11.6844 9.40214
133 2 4.85413 11.4432 10.9305
188 2 0.815553 9.19325 10.5888
139 2 4.16746 7.25571 12.0775
123 2 2.45989 6.26432 11.5424
59 1 2.78147 6.41685 12.4348
1 1 12.1774 2.08589 2.6054
6 1 7.67252 0.249931 2.63349
21 1 8.31345 4.3521 1.58074
44 1 12.005 0.15875 0.568169
118 2 11.2949 6.09044 1.53608
65 2 11.4376 2.50799 3.01586
85 2 8.1595 3.49105 1.05397
173 2 7.99154 1.04877 0.477672
182 2 9.78393 5.78139 1.26388
149 2 8.57956 4.00957 2.44326
172 2 12.0292 0.60625 1.4411
54 1 10.5927 6.08357 0.871697
129 2 12.2788 2.57635 1.73559
184 2 6.38008 2.22964 2.67819
16 1 11.139 5.21944 5.32421
144 2 10.8247 6.08865 5.6581
40 1 9.05215 2.21835 5.85454
63 1 9.831 3.38639 3.68266
80 2 11.3366 4.70476 6.08424
89 2 6.65828 4.86127 5.16077
191 2 9.46888 2.71811 4.23044
127 2 10.3528 3.9771 4.28892
104 2 9.95996 2.51568 5.96939
168 2 9.10075 1.22126 5.79005
10 1 11.9072 0.100604 8.9721
31 1 7.75769 4.52815 6.66764
43 1 11.6188 3.35333 7.12519
58 1 10.4221 5.70513 8.68023
38 1 7.9141 1.17875 9.09958
107 2 11.2444 3.77338 7.96494
159 2 8.49349 5.14799 6.87402
95 2 8.18844 3.7315 6.33236
166 2 7.01741 1.52969 8.98987
125 2 8.7915 0.13899 7.68971
171 2 12.3968 2.75415 7.33915
20 1 8.27172 5.65091 10.2228
26 1 11.8969 2.32241 10.8994
169 2 8.93187 2.67718 11.2208
154 2 10.8976 2.52444 10.932
41 1 9.4017 3.13098 10.4867
84 2 8.96705 5.72016 9.56189
90 2 11.9892 1.56532 11.5086
156 2 6.44261 5.47629 10.0087
102 2 8.4121 1.9488 9.41102
105 2 8.95658 3.95431 10.4095
109 2 7.01233 2.03144 12.3573
122 2 10.889 5.82391 9.53416
138 2 11.8239 0.869941 9.56751
45 1 7.9423 1.90885 12.4332
3 1 12.4192 7.56575 2.52647
9 1 9.46147 11.0068 1.31319
35 1 6.78898 8.82277 1.24241
91 2 6.6568 8.87098 3.04552
70 2 6.82343 12.305 2.2662
73 2 8.76164 10.8358 0.667543
185 2 9.68966 7.35396 0.0180254
99 2 7.5693 8.52386 0.73129
147 2 10.1977 9.87835 2.35725
131 2 11.7349 8.1955 2.77766
108 2 11.157 12.0698 0.569075
137 2 9.04221 11.6499 1.90503
13 1 12.1504 10.6118 4.81717
19 1 10.26 9.25401 3.11404
27 1 6.87833 8.88295 3.96848
48 1 7.36431 11.3183 5.17001
77 2 11.4812 10.1224 4.30835
134 2 7.69948 12.3278 3.58569
112 2 6.75759 11.4944 5.90171
176 2 7.09952 10.3865 4.83527
155 2 6.3217 8.27818 4.42023
83 2 9.32815 9.03331 3.34769
141 2 12.4425 9.99554 5.50264
30 1 10.5443 7.67667 6.79706
46 1 8.61507 9.53991 7.81479
61 1 9.48228 12.2183 7.13748
94 2 11.4455 8.12696 6.86233
110 2 8.78044 10.4519 7.43642
186 2 10.6843 6.50064 8.11233
158 2 9.88864 8.33088 7.09584
174 2 9.07163 9.48716 8.69713
177 2 7.05875 8.84564 7.42281
189 2 10.2531 12.2782 7.68135
15 1 9.78326 9.75185 10.1931
50 1 8.03179 11.5729 10.738
57 1 8.99971 7.89143 12.0488
79 2 9.1628 10.5125 10.3375
100 2 11.5952 6.4525 11.7294
121 2 9.38377 8.57961 11.4722
143 2 10.7192 10.058 10.2211
148 2 8.44612 6.25126 10.9015
164 2 11.9817 7.46961 10.6039
178 2 7.29173 10.962 10.5099
36 1 11.8674 6.5043 10.7943
114 2 7.85458 12.4169 10.2277
ITEM: TIMESTEP
300
ITEM: NUMBER OF ATOMS
192
ITEM: BOX BOUNDS xy xz yz pp pp pp
0.0000000000000000e+00 1.2444699999999999e+01 0.0000000000000000e+00
0.0000000000000000e+00 1.2444699999999999e+01 0.0000000000000000e+00
0.0000000000000000e+00 1.2444699999999999e+01 0.0000000000000000e+00
ITEM: ATOMS id type x y z
2 1 5.2098 5.70527 2.26479
12 1 3.60846 3.8173 1.40946
17 1 0.992862 3.66597 0.295594
129 2 0.440022 2.97633 2.07896
76 2 3.99448 4.7173 1.51685
120 2 5.37617 3.12872 2.41167
140 2 2.90626 3.82115 0.791855
130 2 6.01738 5.85431 1.80427
96 2 4.64122 2.73499 0.555129
145 2 0.636508 4.54264 0.262681
4 1 2.86051 4.59545 4.53733
115 2 5.42189 0.552855 5.98059
51 1 5.4819 1.48193 5.74221
190 2 1.0229 2.20038 4.12877
62 1 1.77794 2.06632 4.69395
68 2 3.73594 4.77277 4.81992
82 2 0.171266 6.08984 4.98888
126 2 2.15674 1.42847 4.08928
132 2 2.70242 3.61252 4.49596
146 2 1.58709 5.75374 4.39197
153 2 5.90336 4.05027 4.32828
25 1 5.91926 4.98571 4.64353
179 2 5.24348 1.5586 4.83515
66 2 5.46438 5.65977 3.21534
56 1 5.88671 2.75459 3.14151
22 1 2.84157 3.31331 9.0168
167 2 1.73201 1.85505 6.49877
37 1 5.59839 2.75351 8.20038
39 1 1.39122 1.81659 7.41509
150 2 2.59572 4.24979 9.23459
86 2 3.66574 3.26379 8.52395
87 2 5.12344 5.97306 7.97083
101 2 5.5832 2.7058 7.21296
103 2 1.95936 2.29974 8.05284
151 2 5.446 5.63008 6.48222
165 2 5.88425 3.63646 8.28643
74 2 0.0644297 0.485951 8.22082
28 1 5.57957 5.28822 9.6098
32 1 5.24839 2.36465 12.3483
34 1 2.01613 5.90908 9.53743
81 2 0.709101 3.11463 11.974
92 2 5.19375 4.56286 10.1299
160 2 4.75542 1.66899 11.863
98 2 1.09577 6.03821 9.83967
123 2 2.85372 6.20334 11.1951
8 1 5.73492 11.328 1.13972
163 2 6.20823 8.10508 0.595801
42 1 1.84138 8.51837 1.01056
52 1 1.7492 11.198 1.24575
72 2 6.13484 10.4363 0.967893
78 2 2.80081 7.65702 2.42934
106 2 1.01072 8.30233 1.53983
116 2 0.998168 11.6198 0.792195
136 2 5.251 11.6398 0.318779
142 2 4.12943 6.97135 2.73057
88 2 4.60444 10.6182 2.67915
170 2 1.88508 9.48499 1.00834
180 2 1.72182 11.5021 2.16135
24 1 4.16418 10.3405 3.48439
33 1 2.02288 11.7434 4.19343
67 2 0.161604 7.10057 3.24463
18 1 0.999352 6.49506 4.61129
97 2 1.29555 11.0589 4.2971
117 2 4.30401 10.5075 5.16309
152 2 3.99611 9.36492 3.33341
53 1 4.58571 10.9235 6.04678
161 2 2.81909 11.2386 3.95123
157 2 2.08648 7.17254 5.77798
14 1 3.42208 7.5288 3.15086
29 1 2.4708 7.2908 6.70811
47 1 2.30066 11.2277 7.44048
49 1 6.04729 9.15243 7.57925
162 2 2.12517 6.33021 8.71391
64 1 0.567948 9.12456 7.1936
93 2 3.46082 7.1471 6.60003
192 2 1.07964 9.98392 7.42391
113 2 5.98736 8.21676 7.2425
124 2 0.102195 8.88406 9.08235
128 2 1.35937 8.42784 7.11292
175 2 3.07688 11.1507 6.87681
181 2 5.07251 10.2438 6.56761
23 1 5.0832 6.36225 7.02285
135 2 5.86923 9.48519 9.26755
111 2 1.73115 11.9112 7.14764
119 2 1.99446 11.273 9.16449
5 1 4.1278 12.1004 11.5319
7 1 5.87283 9.869 10.1547
11 1 5.17671 7.44684 11.861
55 1 1.73831 11.55 10.0265
183 2 1.06728 12.2187 9.79139
59 1 2.9065 6.24994 12.1636
69 2 3.20562 11.9542 11.4392
71 2 5.71642 9.09308 10.6412
75 2 5.44414 6.84635 11.1846
139 2 4.21257 7.15156 12.0521
133 2 4.54022 11.5109 10.8021
188 2 0.495976 10.1232 9.91159
187 2 2.26329 6.93641 12.3679
1 1 12.4318 2.17872 2.48101
6 1 7.5216 0.21057 2.685
21 1 8.50745 4.28374 1.61157
44 1 11.8505 0.0611286 0.621287
45 1 7.9201 2.08763 0.0538964
65 2 11.6187 2.55568 2.83217
85 2 7.928 3.67182 1.04486
173 2 8.16325 1.45574 0.7279
182 2 10.0597 5.31113 0.870011
149 2 8.73294 3.86311 2.43108
172 2 12.1226 0.73141 1.30872
54 1 10.6982 5.98636 0.657701
184 2 6.40849 2.06973 2.6618
109 2 6.86246 2.20047 0.134403
16 1 11.121 5.31874 5.36492
144 2 10.8157 6.15712 5.79797
40 1 9.04818 2.18283 6.06149
63 1 10.1799 3.39979 3.60833
80 2 11.1293 4.58806 6.06271
89 2 6.66262 5.03227 5.28671
191 2 9.97213 2.74737 4.29318
127 2 10.5976 4.15483 4.11449
168 2 8.55653 1.3117 6.04584
104 2 9.78214 1.93786 6.62117
31 1 7.59871 4.50761 6.60341
43 1 11.4781 3.31684 7.18898
58 1 10.1898 5.70755 8.64634
38 1 7.75827 1.20518 8.75872
107 2 11.4124 3.97826 7.9068
159 2 8.1669 4.78076 7.31722
95 2 8.12479 3.73394 6.35907
166 2 6.87542 1.56323 8.40461
102 2 8.06925 2.00393 9.26572
171 2 12.3009 2.88213 7.2592
20 1 8.07349 5.691 10.2842
26 1 12.0232 1.89706 10.7475
169 2 8.78867 2.60565 11.0898
154 2 11.2678 2.55307 10.491
41 1 9.03659 3.03656 10.2497
84 2 8.81815 5.80656 9.59146
90 2 11.724 1.5578 11.6156
156 2 6.47233 5.44729 9.9421
138 2 11.5816 0.55522 9.56182
105 2 8.81989 3.97362 10.412
100 2 11.604 6.04828 11.5933
122 2 10.8246 5.73053 9.38216
3 1 12.1536 7.54645 2.48943
9 1 9.55433 11.4323 1.35631
35 1 6.8055 8.63043 1.13629
91 2 7.03497 8.68847 2.92606
70 2 6.80473 12.2971 2.19629
73 2 9.19498 11.3087 0.485595
185 2 9.63789 7.58223 0.0428962
99 2 7.65864 8.49842 0.578638
147 2 9.79806 9.89177 2.67684
131 2 11.565 8.30195 2.78699
108 2 11.0425 12.1484 1.12315
137 2 8.90823 12.0152 1.89132
118 2 11.0272 6.45832 1.47138
13 1 12.173 10.2957 4.97263
141 2 12.3091 9.50307 5.57109
27 1 7.17014 8.9253 3.85619
48 1 7.23662 11.4603 5.30111
77 2 11.689 10.0458 4.21298
83 2 9.50565 8.82653 3.75128
112 2 6.33089 11.1295 5.38176
176 2 7.68634 10.7142 4.82161
155 2 6.72652 8.24499 4.34409
134 2 7.43579 12.3322 3.59126
19 1 10.2214 9.1742 3.14389
30 1 10.5502 7.66958 6.80753
46 1 8.88484 9.45094 7.75197
61 1 9.44287 12.1619 7.2866
94 2 11.4704 7.95812 7.03688
110 2 9.06127 10.2662 7.29764
186 2 10.2791 6.53505 8.02172
158 2 10.0032 8.40942 7.1348
174 2 9.1558 9.54798 8.68627
177 2 6.91877 9.52236 7.27057
189 2 10.3125 12.1992 7.63534
10 1 11.9217 12.3737 8.87389
125 2 8.81879 12.4229 7.97559
15 1 9.82295 9.87474 10.2376
50 1 7.89403 11.6345 10.7324
57 1 8.89442 7.97639 12.0153
79 2 9.39899 10.7951 10.3086
60 1 12.3349 9.31397 9.88813
121 2 9.38237 8.63944 11.4734
143 2 10.8157 10.067 10.2047
148 2 8.32159 6.34852 10.8861
164 2 11.9355 7.40207 10.8298
178 2 7.25658 10.922 10.6363
36 1 12.0422 6.4034 10.7563
114 2 7.60705 12.3662 10.2393
ITEM: TIMESTEP
400
ITEM: NUMBER OF ATOMS
192
ITEM: BOX BOUNDS xy xz yz pp pp pp
0.0000000000000000e+00 1.2444699999999999e+01 0.0000000000000000e+00
0.0000000000000000e+00 1.2444699999999999e+01 0.0000000000000000e+00
0.0000000000000000e+00 1.2444699999999999e+01 0.0000000000000000e+00
ITEM: ATOMS id type x y z
2 1 5.45527 5.8695 2.33125
12 1 3.71284 3.81294 1.21018
17 1 1.0967 3.58193 0.194601
129 2 0.611713 3.00208 1.88573
76 2 4.108 4.4924 1.77316
120 2 5.35494 2.59273 2.65688
140 2 2.78405 3.92665 1.08434
130 2 6.20169 5.984 1.77537
96 2 4.59505 2.79605 0.318913
1 1 0.191628 2.24937 2.41542
4 1 2.74584 4.73552 4.51825
115 2 4.46817 0.817396 5.48628
51 1 5.15156 1.43693 5.83016
190 2 1.4748 2.08023 3.95241
62 1 1.82291 1.97934 4.80162
68 2 3.6762 4.78761 4.70711
82 2 0.113473 6.13398 4.81441
126 2 2.01227 1.02641 4.73782
132 2 2.51313 3.7963 4.64978
146 2 1.54437 5.84206 4.29371
153 2 6.02716 4.09199 4.37507
25 1 5.96858 4.93281 4.87969
179 2 5.43536 1.90407 5.06502
66 2 5.85115 5.73054 3.22209
56 1 6.04679 2.6992 3.28898
22 1 2.68034 3.05647 9.18116
167 2 1.31138 1.87413 6.48509
37 1 5.14995 2.86041 8.1007
39 1 1.22904 1.51141 7.38957
74 2 0.0102785 0.476541 7.7597
86 2 3.63316 2.93147 8.93268
87 2 5.10846 6.09646 8.06472
101 2 4.84374 2.51765 7.21415
103 2 1.82432 1.96952 8.04271
165 2 5.72454 3.53126 7.71689
28 1 5.69674 5.22214 9.52095
32 1 5.24957 2.20085 12.2735
34 1 2.19817 5.8342 9.45811
81 2 0.88196 2.99476 11.8713
92 2 5.36878 4.37988 9.8846
160 2 4.71142 1.38239 12.1717
98 2 1.25687 5.95434 9.43026
123 2 2.6117 6.21517 11.0934
59 1 2.78554 6.203 12.0706
145 2 1.04146 4.46415 12.3327
150 2 2.59774 4.01641 9.38559
8 1 5.84367 11.1111 1.08835
163 2 6.17616 8.25266 0.623664
42 1 1.80132 8.37542 1.00006
52 1 1.70807 11.2255 1.01873
180 2 2.06504 11.5441 1.86203
78 2 2.96533 7.64463 2.53056
106 2 0.908663 8.12491 1.35815
116 2 0.804405 11.5913 1.08214
136 2 5.35636 11.3779 0.32572
142 2 4.38939 7.09822 3.04217
88 2 4.82216 10.2253 2.53183
170 2 1.85805 9.33318 0.8703
67 2 0.0827873 7.03369 3.01711
187 2 2.45489 7.04192 0.0258309
24 1 4.26122 10.0522 3.26759
33 1 2.17139 11.7945 4.36977
152 2 4.03099 9.08855 3.34472
18 1 0.881935 6.61097 4.49206
97 2 1.35851 11.3857 4.77289
117 2 4.57042 10.5321 5.01738
141 2 0.204411 9.54063 5.5143
53 1 4.68628 10.8543 5.95265
161 2 2.59892 10.975 4.10515
157 2 1.93584 7.1673 5.98515
14 1 3.61414 7.70755 3.26183
29 1 2.38823 7.47877 6.73821
47 1 2.52348 11.0623 7.6331
49 1 6.12498 9.17571 7.4897
162 2 2.50735 6.56438 9.00967
64 1 0.506405 9.00584 7.43861
93 2 3.18849 6.94873 6.90743
192 2 0.979943 9.89819 7.4211
113 2 5.8042 8.25141 7.54533
111 2 2.25029 11.9741 7.5098
128 2 1.22014 8.35688 7.33029
175 2 3.18422 10.9032 6.9169
181 2 5.28688 10.2613 6.37918
23 1 4.84973 6.67077 7.33359
124 2 0.298282 9.28704 9.08418
151 2 5.20111 6.40176 6.46861
5 1 4.29792 12.1309 11.563
7 1 5.713 9.94303 10.3712
11 1 5.36362 7.35361 11.4324
55 1 1.80978 11.6367 10.3021
183 2 1.24561 12.3179 9.97525
119 2 2.1742 11.2573 9.50802
69 2 3.36642 12.0503 11.5165
71 2 5.65658 8.99973 10.6712
75 2 5.76569 6.74839 10.7942
139 2 4.57577 6.89125 11.6783
133 2 4.65002 11.4306 10.8981
188 2 0.560871 10.2687 10.4131
135 2 5.70986 9.89482 9.36243
109 2 6.81798 2.51234 0.304431
6 1 7.09248 0.385869 2.69745
21 1 8.86768 4.57056 1.58508
44 1 11.8421 0.477071 0.666569
45 1 7.74439 2.32959 0.230002
65 2 11.8918 2.74857 2.87743
85 2 8.60475 3.86091 0.925061
173 2 7.80999 1.45841 0.533352
182 2 10.0643 5.35312 0.750947
149 2 9.51931 4.3205 2.224
172 2 12.0007 1.03867 1.46113
54 1 10.7798 5.94532 0.433728
184 2 6.52473 1.88897 3.01284
108 2 11.016 0.0607436 0.900757
16 1 11.0885 5.2952 5.34942
144 2 10.9734 6.1779 5.78233
40 1 8.96427 2.29526 5.96412
63 1 10.4918 3.38233 3.66011
80 2 11.0813 4.65763 6.1157
89 2 6.67191 4.75321 5.57789
191 2 9.86018 2.92573 4.21587
127 2 10.6458 4.14864 4.27097
104 2 9.74249 2.48806 6.51307
31 1 7.72617 4.3781 6.84794
43 1 11.1645 3.35406 7.31955
58 1 10.0848 5.75502 8.69246
38 1 7.68763 1.1013 8.69018
107 2 10.699 3.54979 8.1542
159 2 8.33628 5.03903 7.09731
122 2 10.8273 5.8455 9.29036
166 2 6.78875 1.54925 8.61281
102 2 8.17156 1.70719 9.30816
171 2 11.9131 2.86756 7.56665
138 2 11.6495 0.816619 9.22432
168 2 8.72155 1.37819 6.28763
10 1 11.7404 0.228449 8.45561
95 2 8.28689 3.57284 6.64015
20 1 8.00401 5.9386 10.3852
26 1 11.7961 1.54467 10.8667
169 2 8.40352 2.65648 11.085
154 2 10.843 1.94585 10.9216
41 1 8.9207 2.76836 10.2539
84 2 8.78171 6.08164 9.7788
90 2 11.966 1.21101 11.7843
156 2 6.64251 5.4103 9.85959
105 2 8.97153 3.72834 10.1378
3 1 11.9679 7.29323 2.27522
9 1 9.3935 11.5297 1.32932
35 1 6.8558 8.74881 1.08069
91 2 7.26439 8.68967 2.70966
70 2 6.38835 12.3036 2.11718
73 2 8.77512 11.2608 0.680584
118 2 11.0646 6.29591 1.32922
99 2 7.63904 8.58719 0.550814
147 2 10.0803 9.91655 2.5594
131 2 11.279 7.93496 2.5966
72 2 6.38089 10.3417 0.893049
137 2 8.84779 12.0502 1.9856
13 1 12.2831 10.1803 4.80987
19 1 10.026 9.2905 3.28056
27 1 7.59517 8.82539 3.65589
48 1 7.32423 11.5614 4.97187
77 2 11.3819 9.99822 4.69773
83 2 9.07803 9.42512 3.47303
112 2 6.68292 11.852 5.62444
176 2 7.31023 10.5819 4.90354
155 2 7.30448 8.03669 4.15658
134 2 7.19713 12.3156 3.49652
30 1 10.6845 7.57413 6.86748
46 1 8.84968 9.49682 7.49954
61 1 9.54658 11.8577 7.65154
94 2 11.4195 8.05981 7.16675
110 2 9.15502 10.4868 7.30182
186 2 10.1561 6.44455 8.01595
158 2 9.97307 8.35884 6.89472
174 2 9.2054 9.39959 8.37343
177 2 7.08428 9.2024 7.46003
189 2 10.4735 12.1827 8.0052
125 2 8.78744 12.3975 7.9775
15 1 9.78553 9.67103 10.3283
50 1 7.79355 11.7918 10.9403
57 1 8.79017 7.90427 11.8992
79 2 9.39637 10.5266 10.7004
60 1 12.4009 9.62083 9.9224
121 2 9.31889 8.53211 11.3068
143 2 10.7321 9.77101 10.2965
148 2 8.16272 6.77012 10.9582
164 2 12.2652 7.45391 10.4908
178 2 7.00971 11.1644 10.8317
36 1 12.0894 6.47093 10.546
185 2 9.52686 7.41654 12.3138
100 2 11.562 6.33738 11.3445
114 2 7.86306 12.2508 10.1247
ITEM: TIMESTEP
500
ITEM: NUMBER OF ATOMS
192
ITEM: BOX BOUNDS xy xz yz pp pp pp
0.0000000000000000e+00 1.2444699999999999e+01 0.0000000000000000e+00
0.0000000000000000e+00 1.2444699999999999e+01 0.0000000000000000e+00
0.0000000000000000e+00 1.2444699999999999e+01 0.0000000000000000e+00
ITEM: ATOMS id type x y z
2 1 5.88645 5.99982 2.33147
12 1 3.88088 3.79582 1.42585
96 2 4.82912 2.53636 0.270061
129 2 0.851355 3.01154 1.90737
76 2 4.32024 4.53757 1.02823
120 2 5.26477 3.14109 2.938
140 2 3.10814 3.73756 0.866855
1 1 0.348842 2.48056 2.59307
4 1 2.81218 4.63012 4.55742
115 2 3.97296 0.864839 5.67418
51 1 4.82916 1.34273 5.68087
190 2 1.37411 2.37924 4.10186
62 1 1.92752 1.92532 4.72687
68 2 3.69663 4.81907 4.19428
82 2 0.308574 6.18194 4.94948
126 2 1.84475 0.92805 4.58163
132 2 2.76703 3.67358 4.50825
146 2 1.54141 5.95523 4.10682
153 2 6.08338 3.88925 4.92169
25 1 5.91634 4.82445 5.09802
179 2 5.0469 1.52432 4.78201
66 2 6.07745 5.62087 3.19744
56 1 5.79563 2.64387 3.5427
22 1 2.45041 2.66991 9.23449
167 2 1.44256 1.95143 6.3381
37 1 5.06853 2.69475 7.91639
39 1 1.39164 1.53113 7.24838
74 2 0.0869422 0.698324 8.07005
86 2 3.40469 2.76259 8.96112
165 2 5.55609 3.53152 7.71555
101 2 4.74408 2.44413 7.02818
103 2 1.92109 2.01623 7.91251
162 2 2.09116 5.92618 8.34616
151 2 4.84706 6.19474 6.76044
34 1 2.15007 5.84 9.2558
150 2 2.20977 3.635 9.19718
28 1 5.6806 5.30266 9.42961
32 1 5.29369 2.05486 11.9776
145 2 1.37602 4.46961 12.003
81 2 0.756234 3.20014 11.6274
92 2 5.42206 4.41103 9.68701
160 2 4.8415 1.19146 11.8556
17 1 1.25321 3.59633 12.3685
8 1 5.6562 11.0358 1.30792
187 2 2.38324 7.0581 0.164388
42 1 1.63646 8.23184 1.2034
52 1 1.71488 11.1324 0.917032
180 2 2.08765 11.4011 1.78427
78 2 2.72234 7.70063 2.71231
106 2 0.802836 7.91305 1.59085
116 2 0.897984 11.699 0.92667
136 2 5.15703 11.3987 0.507361
142 2 4.10253 6.98285 2.73328
88 2 4.91091 10.7928 2.60959
170 2 1.53817 9.15686 0.900098